<?xml version="1.0" encoding="UTF-8"?>

<!-- generated on 2025-03-18 15:31:39 by Eclipse SUMO sumo Version 1.20.0
<configuration xmlns:xsi="http://www.w3.org/2001/XMLSchema-instance" xsi:noNamespaceSchemaLocation="http://sumo.dlr.de/xsd/sumoConfiguration.xsd">

    <input>
        <net-file value="/home/cam/sumo/tools/2025-03-18-15-30-49/osm.net.xml.gz"/>
        <route-files value="/home/cam/sumo/tools/2025-03-18-15-30-49/trips.trips.xml"/>
        <additional-files value="/home/cam/sumo/tools/2025-03-18-15-30-49/osm_stops.add.xml"/>
    </input>

    <output>
        <vehroute-output value="/home/cam/sumo/tools/2025-03-18-15-30-49/vehroutes.xml"/>
        <stop-output value="/home/cam/sumo/tools/2025-03-18-15-30-49/stopinfos.xml"/>
    </output>

    <time>
        <begin value="0.0"/>
    </time>

    <processing>
        <ignore-route-errors value="true"/>
    </processing>

    <routing>
        <device.rerouting.adaptation-interval value="0"/>
    </routing>

    <report>
        <aggregate-warnings value="5"/>
        <error-log value="/home/cam/sumo/tools/2025-03-18-15-30-49/trips.trips.xml.errorlog"/>
        <no-step-log value="true"/>
    </report>

</configuration>
-->

<routes xmlns:xsi="http://www.w3.org/2001/XMLSchema-instance" xsi:noNamespaceSchemaLocation="http://sumo.dlr.de/xsd/routes_file.xsd">

    <vehicle id="0_bus_UVX:0" type="pt_bus" depart="15.00" departLane="3" arrival="857.00">
        <route edges="1028561249#0 -1028561248#0 -36322646#9 -36322646#8 -36322646#7 -36322646#6 -36322646#4 -36322646#3 -36322646#2 -36322646#1 -36322646#0 -1028561247#1 -1028561247#0 36322642#1 36322642#4 36322642#5 36322642#6 1029175181#0 -1031068106#1 -1031068106#0 -10244326#5 -10244326#4 -10244326#3 -10244326#2 -10244326#1 -10244326#0 -1031068107#3 -1031068107#2 1001839200#1 10238291#1 10238291#2 1030226943#0 1030226943#1 413237561#0 413237561#2 1343086010#1 1343086009 1001839214#0 1001839213#1 1001839211#0 776681829#1 776681829#3 776681829#4 776681829#5 10244330#0 10244330#1 10244330#2 1103204099#0 231243103#1 231243103#2 231243103#3 231243103#4 231243103#8 231243103#9 231243103#10 231243103#11 231243103#13 144350638#0 144350638#1 144350638#2 144350638#4 144350638#5 144350638#6 144350638#7 599840849#1 599840849#1-AddedOffRampEdge 599840849#2 882705696#0 882705696#1 144350637 230377848#0 230344368 413213007 131702935#0 40664629 866663391 866663389 177427971#0 177427971#1-AddedOnRampEdge 177427971#1 -1095496457 -351724691#10 -351724691#9 -351724691#8 544659086#1 544659086#4 544659086#5 262148878#6 -463704558#1 -463704558#0 346643179#0 346643179#1 346643179#2 346643179#3 463704557#1 1225221152#1"/>
        <stop busStop="-9932608377" duration="30.00"/>
    </vehicle>

    <vehicle id="2_bus_831:0" type="pt_bus" depart="165.00" departLane="0" arrival="912.00">
        <route edges="1225221152#1 463704558#0 463704558#1 -262148878#6 -544659086#5 -544659086#4 -544659086#1 351724691#8 351724691#9 351724691#10 1095496457 28223395 28223395-AddedOffRampEdge 607175019#1 28223391#0 866663396 866663395 1224012774 28223366 230344362#0 230344361#0 230377854#0 230377854#1 28376044 231247790 477393513#0 477393513#1 477393511 1030237289 346646681#0 346646681#1 1030561465#0 1030561465#1 28376056#0 28376056#1 413212998#0 413212998#2 230345100 230377849 418454992 102605736#0 882705697 792414436 882705688#0 144350639#0 144350639#1 144350639#2 144350639#3 144350639#5 144350639#6 144350639#8 144350634#0 144350634#1 1036894577 1036894581#0 1036894581#4 1036894581#5 1103204100#0 1036897386#1 684673675#1 684673675#2 684673675#4 684673675#5 684673675#6 1001839216#1 732995485#0 10238292#1 413240396 413237568#0 413237568#1 413237568#2 413237568#3 1030237290#0 31929185#1 31929185#2-AddedOnRampEdge 31929185#2 31929185#4 -932976224#0"/>
        <stop busStop="9932608367" duration="30.00"/>
    </vehicle>

    <vehicle id="3_bus_862:0" type="pt_bus" depart="383.00" departLane="0" arrival="931.00">
        <route edges="463704557#1 1225221152#1 463704558#0 463704558#1 -262148878#6 -544659086#5 -544659086#4 -544659086#1 351724691#8 351724691#9 351724691#10 1095496457 28223395 28223395-AddedOffRampEdge 607175019#1 28223391#0 866663396 866663395 1224012774 28223366 230344362#0 230344361#0 230377854#0 230377854#1 28376044 231247790 477393514 413237539 -39255600#8 -39255600#7 -39255600#6 -39255600#5 -39255600#4 -39255600#3 -39255600#1 -39255600#0 28337320#0 28337320#1 684661224#0 684661224#1 39255611#0 39255611#1 39255615#0 39255615#1 144350639#0 144350639#1 144350639#2 144350639#3 144350639#5 144350639#6 144350639#8 144350634#0 144350634#1 1036894577 1036894581#0 1036894581#4 1036894581#5 1103204100#0 1036897386#1 684673675#1 684673675#2 684673675#4 684673675#5 684673675#6 776681829#1 776681829#3 776681829#4 776681829#5"/>
        <stop busStop="9932608366" duration="30.00"/>
    </vehicle>


    <vehicle id="1_bus_UVX:1" type="pt_bus" depart="133.00" departLane="0" arrival="1051.00">
        <route edges="1225221152#1 463704558#0 463704558#1 -262148878#6 -544659086#5 -544659086#4 -544659086#1 351724691#8 351724691#9 351724691#10 1095496457 28223395 28223395-AddedOffRampEdge 607175019#1 28223391#0 866663396 866663395 1224012774 28223366 230344362#0 230344361#0 230377854#0 230377854#1 28376044 231247790 477393514 413237539 -39255600#8 -39255600#7 -39255600#6 -39255600#5 -39255600#4 -39255600#3 -39255600#1 -39255600#0 28337320#0 28337320#1 684661224#0 684661224#1 39255611#0 39255611#1 39255615#0 39255615#1 144350639#0 144350639#1 144350639#2 144350639#3 144350639#5 144350639#6 144350639#8 144350634#0 144350634#1 1036894577 1036894581#0 1036894581#4 1036894581#5 1103204100#0 1036897386#1 684673675#1 684673675#2 684673675#4 684673675#5 684673675#6 1001839216#1 732995485#0 10238292#1 413240396 413237568#0 413237568#1 413237568#2 413237568#3 1030237290#0 31929185#1 31929185#2-AddedOnRampEdge 31929185#2 31929185#4 1031068107#1 1031068107#3 10244326#0 10244326#1 10244326#2 10244326#3 10244326#4 10244326#5 1031068106#0 1031068106#1 10244332#1 10244332#2 1029175183#0 1029175182#1 1029175184#0 1028561247#0 1028561247#1 36322646#0 36322646#1 36322646#2 36322646#3 36322646#4 36322646#6 36322646#7 36322646#8 36322646#9 1028561248#0 -1028561249#0"/>
        <stop busStop="9932608366" duration="30.00"/>
    </vehicle>

    <vehicle id="5_bus_831:1" type="pt_bus" depart="441.00" departLane="1" arrival="1244.00">
        <route edges="932976224#0 1001839200#1 10238291#1 10238291#2 1030226943#0 1030226943#1 413237561#0 413237561#2 1343086010#1 1343086009 1001839214#0 1001839213#1 1001839211#0 776681829#1 776681829#3 776681829#4 776681829#5 10244330#0 10244330#1 10244330#2 1103204099#0 231243103#1 231243103#2 231243103#3 231243103#4 231243103#8 231243103#9 231243103#10 231243103#11 231243103#13 144350638#0 144350638#1 144350638#2 144350638#4 144350638#5 144350638#6 144350638#7 599840849#1 599840849#1-AddedOffRampEdge 599840849#2 882705696#0 230344372#0 882705689 28376044 231247790 477393514 413237539 230346378#0 230346378#1 477393511 1030237289 346646681#0 346646681#1 1030561465#0 1030561465#1 28376056#0 28376056#1 230344367#0 230344367#1 413212996 413212995#0 413213007 131702935#0 40664629 866663391 866663389 177427971#0 177427971#1-AddedOnRampEdge 177427971#1 -1095496457 -351724691#10 -351724691#9 -351724691#8 544659086#1 544659086#4 544659086#5 262148878#6 -463704558#1 -463704558#0 346643179#0 346643179#1 346643179#2 346643179#3 463704557#1 1225221152#1"/>
        <stop busStop="9932608366" duration="30.00"/>
    </vehicle>

</routes>
