<?xml version="1.0" encoding="UTF-8"?>

<!-- generated on 2025-04-09 17:45:53 by Eclipse SUMO sumo Version 1.22.0
<sumoConfiguration xmlns:xsi="http://www.w3.org/2001/XMLSchema-instance" xsi:noNamespaceSchemaLocation="http://sumo.dlr.de/xsd/sumoConfiguration.xsd">

    <input>
        <net-file value="D:\Program Files (x86)\Eclipse\Sumo\tools\2025-04-09-17-41-13\osm.net.xml.gz"/>
        <route-files value="D:\Program Files (x86)\Eclipse\Sumo\tools\2025-04-09-17-41-13\trips.trips.xml"/>
        <additional-files value="D:\Program Files (x86)\Eclipse\Sumo\tools\2025-04-09-17-41-13\osm_stops.add.xml"/>
    </input>

    <output>
        <vehroute-output value="D:\Program Files (x86)\Eclipse\Sumo\tools\2025-04-09-17-41-13\vehroutes.xml"/>
        <stop-output value="D:\Program Files (x86)\Eclipse\Sumo\tools\2025-04-09-17-41-13\stopinfos.xml"/>
    </output>

    <time>
        <begin value="0.0"/>
    </time>

    <processing>
        <ignore-route-errors value="true"/>
    </processing>

    <routing>
        <device.rerouting.adaptation-interval value="0"/>
    </routing>

    <report>
        <aggregate-warnings value="5"/>
        <error-log value="D:\Program Files (x86)\Eclipse\Sumo\tools\2025-04-09-17-41-13\trips.trips.xml.errorlog"/>
        <no-step-log value="true"/>
    </report>

</sumoConfiguration>
-->

<routes xmlns:xsi="http://www.w3.org/2001/XMLSchema-instance" xsi:noNamespaceSchemaLocation="http://sumo.dlr.de/xsd/routes_file.xsd">
    <vehicle id="4_bus_F514:0" type="pt_bus" depart="52.00" departLane="0" arrival="292.00">
        <route edges="684494698#3 549591123#1 549591123#2 549591123#4 1175531910#0 1175531910#1 -285905163#9 -285905163#8 -285905163#6 -285905163#5 -285905163#4 -285905163#3 -285905163#2 -285905163#1 -684494701 -213600800#12 -213600800#11 -213600800#10 -213600800#9 -213600800#8 -213600800#7 -213600800#6 -213600800#5 -213600800#4 -213600800#3 -213600800#1 -131754235#2 -131754235#1 -131754235#0 -1352266530 -1352266529#5 -1352266529#4 -1352266529#3 -1352266529#2 -1352266529#1 -1352266529#0 1352120431 738202478#0 738202481#0 738202481#1 738202481#3 238470014#0 238470014#1 432599670#1 1296664194 1075805933 480973518#0 480973518#1 480973518#4"/>
        <stop busStop="6413068452" duration="30.00"/>
    </vehicle>

    <vehicle id="11_bus_862:0" type="pt_bus" depart="133.00" departLane="0" arrival="722.00">
        <route edges="776681829#5 10244330#0 10244330#1 10244330#2 1103204099#0 1036897390#1 1036897390#3 1036897390#4 1036897390#5 1036894576 1001839221 1001839223#1 1001839223#2 1001839223#3 1001839223#4 1001839223#5 1001839223#6 882705686#1 599840849#1 599840849#1-AddedOffRampEdge 599840849#2 882705696#0 882705696#1 144350637 230377848#0 230344368 413213007 131702935#0 40664629 866663391 866663389 177427971#0 177427971#1-AddedOnRampEdge 177427971#1 -1095496457 -351724691#10 -351724691#9 -351724691#8 544659086#1 544659086#4 544659086#5 262148878#6 -463704558#1 -463704558#0 346643179#0 346643179#1 346643179#2 346643179#3 463704557#1"/>
        <stop busStop="6863882459" duration="30.00"/>
        <stop busStop="9932488272" duration="30.00"/>
    </vehicle>

    <vehicle id="3_bus_UVX:2" type="pt_bus" depart="17.00" departLane="0" arrival="844.00">
        <route edges="1225107993#1 -887685004#1 -887685004#0 -231364512#1 -231243759#2 -231243759#1 -231243759#0 231364518#0 231364518#1 231364518#2 231364518#3 231364518#4 231364518#5 231364518#6 629509906#0 629509906#1 684673690 60747907 684673688 629509917#0 629509917#1 60747905#1 60747905#2 60747905#3 511111348#0 10234457#0 10234457#1 10234457#2 10234457#3 10234457#4 10234457#5 10234457#6 10234457#7 10234457#8 10234457#9 10234457#10 10234457#11 10234457#12 10234457#13 10234457#14 1072819409#0 1072819409#1 1072819409#2 1072819409#3 1072819409#5 1072819408#0 1072819408#1 1072819408#2 1072819408#3 1072819408#4 1072819408#5 1072819408#6 684673704#0 684673704#1 89455789#0 89455789#1 89455789#2 89455789#3 10247300#1 10247300#3 346673013#1 10231782#0 10231782#1 10231782#2 10231782#3 10231782#4 10231782#5 684673720#1 684673720#2 684673720#3 533256826 533256827 280133157 280133165#1 10247162#1 10247162#2 10247162#3 10247162#4 10247162#5 10247162#6 10247162#7 346673010 -684673704#1 -684673704#0 -1072819408#6 -1072819408#5 -1072819408#4 -1072819408#3 -1072819408#2 -1072819408#1 -1072819408#0 887681418#0 887681418#1 -10234457#14 -10234457#13 -10234457#12 -10234457#11 -10234457#10 -10234457#9 -10234457#8 -10234457#7 -10234457#6 -10234457#5 -10234457#4 -10234457#3 -10234457#2 -10234457#1 -10234457#0 -511111348#0 -60747905#3 -60747905#2 -60747905#1 629509938#0 629509938#1 684673706 684673705 684673686 629509934#0 629509934#1 -231364518#6 -231364518#5 -231364518#4 -231364518#3 -231364518#2 -231364518#1 -231364518#0 231243759#0 231243759#1 231243759#2 231364512#1 887685004#0 887685004#1 1224483160 684673673#1 1225107993#1"/>
        <stop busStop="9932513538" duration="30.00"/>
        <stop busStop="9932608364" duration="30.00"/>
        <stop busStop="9932608360" duration="30.00"/>
        <stop busStop="9932608361" duration="30.00"/>
        <stop busStop="9932608365" duration="30.00"/>
        <stop busStop="9932513538" duration="30.00"/>
    </vehicle>

    <vehicle id="27_bus_F514:1" type="pt_bus" depart="574.00" departLane="0" arrival="852.00">
        <route edges="-1296664197 -480973518#2 -480973518#0 -1075805933 -1296664194 -432599670#2 814438894#1 814438893 814438891#0 814438891#2 738202480#1 1352266529#0 1352266529#1 1352266529#2 1352266529#3 1352266529#4 1352266529#5 1352266530 131754235#0 131754235#1 131754235#2 213600800#1 213600800#3 213600800#4 213600800#5 213600800#6 213600800#7 213600800#8 213600800#9 213600800#10 213600800#11 213600800#12 213600800#13 285905163#1 285905163#2 285905163#3 285905163#4 285905163#5 285905163#6 285905163#8 285905163#9 684494700 684494698#0 684494698#1 684494698#2 684494698#3"/>
        <stop busStop="6413068452@9501397" duration="30.00"/>
    </vehicle>

    <vehicle id="13_bus_871:1" type="pt_bus" depart="201.00" departLane="0" arrival="1132.00">
        <route edges="-1226967279#0 -1225225155 -1225225154 -1225225153 -1225225151 -10146776#13 -10146776#12 -10146776#10 -10146776#9 -10146776#8 -10146776#7 -10146776#6 -10146776#5 -10146776#4 -10146776#3 -10146776#2 -10146776#1 -10146776#0 -1339141351#13 -1339141351#12 -1339141351#11 -1339141351#10 -1339141351#9 -1339141351#8 -1339141351#7 -1339141351#6 -1339141351#5 -1339141351#4 -1339141351#3 -1339141351#2 -1339141351#1 -1339141351#0 -1339141350#9 -1339141350#8 -1339141350#7 -1339141350#6 -1339141350#4 -1339141350#3 -1339141350#2 -1339141350#1 -1339141350#0 -1339139637#2 -1339139637#0 -1339139656#1 -1339139656#0 -1339139644#1 -1339139644#0 -1339139640#1 -1339139640#0 -1339139638#4 -1339139638#3 -1339139638#2 -1339139638#1 -1339139638#0 -1062782745#10 -1062782745#9 -1062782745#8 -1062782745#7 -1062782745#6 -1062782745#5 -1062782745#4 -1062782745#3 -1062782745#2 -1062782745#1 -73101591#15 -73101591#14 -73101591#13 -73101591#11 -73101591#9 -73101591#8 -73101591#7 -73101591#5 -73101591#4 -73101591#3 -73101591#2 -73101591#1 -73101591#0 -1356813961 -1356813962#1 -1356813962#0 -1356813958 -1356813959 -1356813960#1 31930148#0 551708647 134248161#0 134248161#0-AddedOffRampEdge 1109029031 1061148053 1109029032 1055030204 598064384 1344490441 31930249 1049263153#0 1049263153#1 1341203229 1049263152 31933857 31933854#0 31933854#1-AddedOnRampEdge 31933854#1 124522810 27805280 743754396 1086871558 10204563 1344491791 1344491792 1334898514 413504525 177428013 823738562#1 823738561 -273163326#2 -273163326#1 -273163326#0 -231366548#13 -231366548#12 -231366548#11 -231366548#10 -231366548#9 -231366548#8 -231366548#6 -231366548#5 -231366548#4 -231366548#3 -231366548#2 -803586162#1 -803586162#0 -231366542#1 -231366542#0 231250765"/>
        <stop busStop="-11377872445" duration="30.00"/>
        <stop busStop="11362282291" duration="30.00"/>
    </vehicle>

    <vehicle id="10_bus_834:0" type="pt_bus" depart="132.00" departLane="0" arrival="1189.00">
        <route edges="1095494532#2 1225109954#1 -1225110665 -1225110664 1225109956#0 -745744432#1 -745744432#0 -745744433 -1224687162#1 -1224687162#0 -531481010 -82253108 -1030754718#0 -1030754720 -131702940 -1030755158 -1030754719 -1030754717 46038409 46038409-AddedOffRampEdge 37065841#0 37065841#1 37065841#2 1334896825 1029860287-AddedOnRampEdge 1029860287 1341210322 1341210322-AddedOffRampEdge 1029860303 1029860305 1029860305-AddedOffRampEdge 1029860306 124522765 27940509 1341201242 228562186 791113047 598018722 684661252 781564531#1 781564531#2 413172548 413172548-AddedOffRampEdge 791113055 791113054 593608392#1 1352502542 228562189#0 228562189#1 1192673079#1 1192673079#2 1192673079#3 1192673079#5 1192673079#6 1192673079#7 1326410762#1 1326410761#0 10231591#1 10231591#3 10231591#4 10231591#5 10231591#7 10231591#8 -1336632006#0 1336632007#0 1336632007#1 1336632007#5 1212070929#2 157871220#2 157871220#3 157871220#4 157871220#6 157871220#7 157871220#8 157871220#9 157871220#11 157871220#12 10241286 759012969 231243759#0 231243759#1 231243759#2 231364512#1 887685004#0 887685004#1 1224483160 684673673#1"/>
        <stop busStop="11361153248" duration="30.00"/>
        <stop busStop="9932513537" duration="30.00"/>
    </vehicle>

    <vehicle id="7_bus_807:0" type="pt_bus" depart="93.00" departLane="0" arrival="1266.00">
        <route edges="477393514 413237539 230346378#0 230346378#1 477393511 1030237289 346646681#0 346646681#1 1030561465#0 1030561465#1 28376056#0 28376056#1 230344367#0 230344367#1 413212996 413212995#0 413213007 102605769 413241227#0-AddedOnRampEdge 413241227#0 413241227#1-AddedOnRampEdge 413241227#1 1018318844 413241225 1341200990 1341200990-AddedOffRampEdge 1029860304 28223411 1344470178 1344470179-AddedOnRampEdge 1344470179 1344470179-AddedOffRampEdge 1029860288 1029860277-AddedOnRampEdge 1029860277 1029860277-AddedOffRampEdge 1029860281 1029860270-AddedOnRampEdge 1029860270 1029860260 1029860251 148716432 1029860249 1029860197 1029860250 1029860253 1344473246 1029860248 37071186 37073635 1341201325 1341201325-AddedOffRampEdge 413241223 1029860238 1029860238-AddedOffRampEdge 1029860234 37017673#1-AddedOnRampEdge 37017673#1 37073824 37073831 1344491664 1344491664-AddedOffRampEdge 1081407139 37075152 52733927 886367189 886367191#0 886367191#1 887743987 886367204#1 10230497#0 10230497#1 10230497#2 10230497#3 -803586162#10 -803586162#9 -803586162#8 -803586162#7 -803586162#6 -803586162#5 -803586162#4 -803586162#3 -803586162#2 -803586162#1 -803586162#0 -231366542#1 -231366542#0 231250765"/>
        <stop busStop="9932608366" duration="30.00"/>
        <stop busStop="11357516426" duration="30.00"/>
    </vehicle>

    <vehicle id="12_bus_871:0" type="pt_bus" depart="165.00" departLane="0" arrival="1277.00">
        <route edges="231250765 -231250751#2 -231250751#1 -231250751#0 231366548#0 231366548#1 231366548#2 231366548#3 231366548#4 231366548#5 231366548#6 231366548#8 231366548#9 231366548#10 231366548#11 231366548#12 231366548#13 273163326#0 273163326#1 273163326#2 684661216 1298674534#0 1298674534#1 228444063 823738563 1174766548 886367196 1118031490 413504535 413504528-AddedOnRampEdge 413504528 1341203985 1093781596 1093781595 31933845#0 31933845#1-AddedOnRampEdge 31933845#1 31933845#2 1341208151 1341208151-AddedOffRampEdge 598064383 1100587641 31930886 1104936593#1-AddedOnRampEdge 1104936593#1 551708643 1109126081 -551708647 -31930148#1 1356813960#0 1356813959 1356813958 1356813962#0 1356813962#1 1356813961 73101591#0 73101591#1 73101591#2 73101591#3 73101591#4 73101591#5 73101591#7 73101591#8 73101591#9 73101591#11 73101591#13 73101591#14 73101591#15 1062782745#1 1062782745#2 1062782745#3 1062782745#4 1062782745#5 1062782745#6 1062782745#7 1062782745#8 1062782745#9 1062782745#10 1339139638#0 1339139638#1 1339139638#2 1339139638#3 1339139638#4 1339139638#5 1339139640#1 1339139644#0 1339139644#1 1339139656#0 1339139656#1 1339139637#0 1339139637#2 1339139657 1339141350#1 1339141350#2 1339141350#3 1339141350#4 1339141350#6 1339141350#7 1339141350#8 1339141350#9 1339141350#10 1339141351#1 1339141351#2 1339141351#3 1339141351#4 1339141351#5 1339141351#6 1339141351#7 1339141351#8 1339141351#9 1339141351#10 1339141351#11 1339141351#12 1339141351#13 10146776#0 10146776#1 10146776#2 10146776#3 10146776#4 10146776#5 10146776#6 10146776#7 10146776#8 10146776#9 10146776#10 10146776#12 10146776#13 1225225151 1225225153 1225225154 1225225155 1225225156 1226967279#1 1225225157#1 753230393 753230395#0 -753230395#0 753230394 1164120906 -1225225157#1 -1226967279#1 -1226967279#0 1225225156 1226967279#1 -1226967279#1 -1226967279#0"/>
        <stop busStop="11362282291" duration="30.00"/>
        <stop busStop="8878017318" duration="30.00"/>
        <stop busStop="11377872445" duration="30.00"/>
    </vehicle>

    <vehicle id="15_bus_880:1" type="pt_bus" depart="253.00" departLane="0" arrival="1404.00">
        <route edges="1227169322#1 1225292023#1 1225292023#2 1225292024 369611876 -684690133#1 -684690133#0 -685466906 37001752 36957066#1 36957066#2 36957066#3 36957066#4 28808105#0 1155438946#0 1155438946#1 1155438946#2 1155438946#3 175387010#1 175387010#2 175387010#3 175387010#4 175387010#5 175387010#6 175387010#7 175387010#8 175387010#9 175387010#10 175387010#11 175387010#12 175387010#13-AddedOnRampEdge 175387010#13 117922014 10188222 -793138990#1 -793138990#0 -793138989 10247746#1 10247746#2 10247746#3 10244417#1 10244417#2 81809883#0 81809883#1 1225293110#0 1225293110#1 1225293111 1225293112 1225293113 81809875#0 -10229598#48 -10229598#47 -10229598#45 -10229598#44 -10229598#43 -10229598#42 -10229598#41 -10229598#39 -10229598#38 -10229598#37 -10229598#36 -10229598#35 -10229598#33 -10229598#32 -10229598#31 -10229598#30 -10229598#28 -10229598#27 -10229598#26 -10229598#25 -10229598#24 -10229598#23 -10229598#22 -10229598#21 -10229598#20 -10229598#19 -10229598#18 -10229598#17 -10229598#16 -10229598#15 -10229598#14 -10229598#13 -10229598#11 -10229598#10 -10229598#9 -10229598#8 -10229598#7 -10229598#6 -10229598#5 -10229598#2 -10229598#1 -10237740#22 -10237740#21 -10237740#20 -10237740#19 -10237740#18 -10237740#16 -10237740#14 -10237740#12 -10237740#11 -10237740#10 -10237740#9 -10237740#7 -10237740#6 -10237740#4 -10237740#2 -10237740#1 -10237740#0 92350818 92350817#1 92350817#2 92350817#3 779045148#1 779045146 94456274#0 94456274#1 94456274#2 94456274#3 94456274#4 94456274#5 94456274#6 94456274#7 94456274#8 94456274#9 94456274#10 94456274#11 94456274#12 94456274#13 -686156598 -106483903 -106483912#1 -106483912#0 -231243104#1 599894826#1 599894825#0 599894825#1 909694985#0 909694985#1 909694985#2 599894823#0 599894823#1 599894822#0 231243108#1 231243108#2 231243108#3 231243108#4 231243108#6 231243108#7 231243108#8 231243108#9 231243108#10 231243108#11 231247786#0 231247786#1 231247786#2 1274723858#0 1274723858#1 1274723858#2 1274723858#3 776681829#1 776681829#3 776681829#4 776681829#5"/>
        <stop busStop="10218747078@16719450" duration="30.00"/>
        <stop busStop="8781455725" duration="30.00"/>
        <stop busStop="6863882459" duration="30.00"/>
    </vehicle>

    <vehicle id="8_bus_821:0" type="pt_bus" depart="119.00" departLane="0" arrival="1409.00">
        <route edges="-244437926#0 -1225096172#2 -1225096172#1 -1225096172#0 684661299#1 598014152 800176122#0 800176122#1 800176122#2 36062332#1 36062332#1-AddedOffRampEdge 36062332#2 37062646#1-AddedOnRampEdge 37062646#1 37062646#1-AddedOffRampEdge 37062646#2 36216735#1-AddedOnRampEdge 36216735#1 609797524 609797524-AddedOffRampEdge 684661326 37063042#1-AddedOnRampEdge 37063042#1 119371559 1069685341 1182836398 1341198587 1182836397 1027606958-AddedOnRampEdge 1027606958 1027606964 1027606964-AddedOffRampEdge 1027606966 1027606968-AddedOnRampEdge 1027606968 1027606969 1341199769 10198643 533256824 533256823 280133157 280133165#1 -533097177#11 -533097177#10 -533097177#9 -533097177#8 -533097177#7 -533097177#6 -533097177#4 -533097177#3 -533097177#2 -533097177#1 -533097177#0 533097176#1 533097176#2 -533097175#1 -117922059#12 -117922059#11 -117922059#10 -117922059#9 -117922059#8 -117922059#7 -117922059#6 -117922059#5 -117922059#4 -117922059#3 -117922059#1 -117922059#0 -533097184#2 -533097184#1 -533097183#1 -533097183#0 10239709#1 10239709#2 10239709#3 10239709#4 231243761#1 231243761#2 231364512#1 887685004#0 887685004#1 1224483160"/>
        <stop busStop="-11361052134" duration="30.00"/>
        <stop busStop="9932513542" duration="30.00"/>
    </vehicle>

    <vehicle id="24_bus_834:1" type="pt_bus" depart="483.00" departLane="0" arrival="1413.00">
        <route edges="684673673#1 1225107993#1 -887685004#1 -887685004#0 -231364512#1 -231243759#2 -231243759#1 -231243759#0 -759012969 759012971#0 -157871220#12 -157871220#11 -157871220#9 -157871220#8 -157871220#7 -157871220#6 -157871220#4 -157871220#3 -157871220#2 -157871220#0 10233059#11 10233059#12 10233059#13 10233059#17 10233059#18 1336632006#0 -10231591#8 -10231591#7 -10231591#5 -10231591#4 -10231591#3 -10231591#1 673875825#1 673875825#2 673875825#4 673875825#5 673875825#7 673875825#8 1192673080#1 1192673080#2 1192673080#3 593610170 791113052 791113050 791113053#0 791113053#1 228562184#0 791113059 682597156 1027606973 1344468924 37064998 1107059663 28223369 413241225 1341200990 1341200990-AddedOffRampEdge 1029860304 28223411 1344470178 1344470179-AddedOnRampEdge 1344470179 1344470179-AddedOffRampEdge 10192480 10192480-AddedOffRampEdge 229716276#0 229716276#2 1030754695 1030754709 1030754708 1030754711#0 1030754711#1 1030754711#2 1030754717 1030754719 1030755158 131702940 1030754720 1030754718#0 82253108 531481010 1224687162#0 1224687162#1 745744433 745744432#0 745744432#1 1095494530#1 1225110664 1095494532#0 1095494532#1 1095494532#2"/>
        <stop busStop="5388433608" duration="30.00"/>
        <stop busStop="11361153248@9499501" duration="30.00"/>
    </vehicle>

    <vehicle id="14_bus_880:0" type="pt_bus" depart="204.00" departLane="0" arrival="1518.00">
        <route edges="776681829#5 10244330#0 10244330#1 10244330#2 1103204099#0 634114924#1 882705681#0 1103204095#1 231243098#0 231243098#1 231243098#2 231243098#3 231243098#4 231243098#5 231243098#7 231243098#8 231243098#9 231243098#10 231243098#12 231243098#13 10232537#1 -10234648#14 -10234648#13 -10234648#12 -10234648#11 -10234648#10 -10234648#7 -10234648#6 -10234648#5 -10234648#4 -10234648#3 -10234648#2 -10234648#1 -10234649#21 -10234649#20 -10234649#19 -10234649#18 -10234649#16 -10234649#15 -10234649#14 -10234649#13 -10234649#12 10249104#11 10249104#14 10249104#15 10249104#16 10249104#19 10249104#20 10249104#21 10249104#24 10249104#25 10249104#28 10249104#29 10249104#30 -92350817#3 -92350817#2 -92350817#1 -92350817#0 10237740#0 10237740#1 10237740#2 10237740#4 10237740#6 10237740#7 10237740#9 10237740#10 10237740#11 10237740#12 10237740#14 10237740#16 10237740#18 10237740#19 10237740#20 10237740#21 10237740#22 10229598#1 10229598#2 10229598#5 10229598#6 10229598#7 10229598#8 10229598#9 10229598#10 10229598#11 10229598#13 10229598#14 10229598#15 10229598#16 10229598#17 10229598#18 10229598#19 10229598#20 10229598#21 10229598#22 10229598#23 10229598#24 10229598#25 10229598#26 10229598#27 10229598#28 10229598#30 10229598#31 10229598#32 10229598#33 10229598#35 10229598#36 10229598#37 10229598#38 10229598#39 10229598#41 10229598#42 10229598#43 10229598#44 10229598#45 10229598#47 10229598#48 793138987#1 793138988 10247746#1 10247746#2 10247746#3 10244417#1 10244417#2 81809883#0 81809883#1 1225293110#0 1225293110#1 1225293111 1225293112 1225293113 81809875#0 793138987#1 793138988 793138989 793138990#0 793138990#1 10201188 10219257 684661297 36973354#0 36973354#1 36973354#2 36973354#3 36973354#4 36973354#5 36973354#6 36973354#7 36973354#8 36973354#9 36973354#10 175387020#1 175387020#1-AddedOffRampEdge 175387020#2 175387020#3 175387020#4 175387020#5 175387020#6 175387020#7 721404074 721404075 685466906 684690133#0 684690133#1 -369611881 369613507#1 369613507#2 369613507#3 369613507#4 369613507#5 684690131#0 684690131#1 1225292022#1 1227169322#0 1227169322#1"/>
        <stop busStop="6863882459" duration="30.00"/>
        <stop busStop="8781455725" duration="30.00"/>
        <stop busStop="10218747078" duration="30.00"/>
    </vehicle>

    <vehicle id="19_bus_807:1" type="pt_bus" depart="383.00" departLane="0" arrival="1559.00">
        <route edges="231250765 -231250751#2 -231250751#1 -231250751#0 -694192100#6 -694192100#5 -694192100#4 -694192100#3 -694192100#2 -694192100#1 -694192100#0 -346479769#4 -346479769#3 -346479769#1 10245147#1 10245147#2 10245147#3 886367180#0 346479766 1224012770-AddedOnRampEdge 1224012770 886103356 1224012775-AddedOnRampEdge 1224012775 886103360 52733931-AddedOnRampEdge 52733931 37075151 37075150#0 37075150#1-AddedOnRampEdge 37075150#1 37073834 37073835 37073828 37073829 37073826 37073826-AddedOffRampEdge 413241574 37073817 1341198826 1341198826-AddedOffRampEdge 1029860194 413241229-AddedOnRampEdge 413241229 1029860247 1029860247-AddedOffRampEdge 37071184 1029860257-AddedOnRampEdge 1029860257 1341211502 1341211502-AddedOffRampEdge 1029860206 1029860258 1029860262 1029860263 1029860268 1029860268-AddedOffRampEdge 10231109 28375244-AddedOnRampEdge 28375244 1341201398 1341201398-AddedOffRampEdge 1029860280 1029860287-AddedOnRampEdge 1029860287 1341210322 1341210322-AddedOffRampEdge 1029860303 1029860305 1029860305-AddedOffRampEdge 598020172 866670353 866670353-AddedOffRampEdge 866663382#0 866663382#2 866663388 866663386 866663399 1224012774 28223366 230344362#0 230344361#0 230377854#0 230377854#1 28376044 231247790 477393514 413237539 230346378#0 230346378#1 477393511"/>
        <stop busStop="11357516426" duration="30.00"/>
        <stop busStop="9932608367" duration="30.00"/>
    </vehicle>

    <vehicle id="9_bus_822:0" type="pt_bus" depart="131.00" departLane="0" arrival="1648.00">
        <route edges="477393514 413237539 230346378#0 230346378#1 477393511 1030237289 346646681#0 346646681#1 1030561465#0 1030561465#1 28376056#0 28376056#1 230344367#0 230344367#1 413212996 413212995#0 413213007 866663381#0 866663398 866663393 866663397 40664634#1-AddedOnRampEdge 40664634#1 1018318842 27940509 1341201242 684661286 1027606971 37064856 1027606970 684661288 1027606960 1027606967 1027606962 151011235 1027606980#1-AddedOnRampEdge 1027606980#1 1027606953 684661331 684661325 800174277 656683043 36216898#1 36216722#1-AddedOnRampEdge 36216722#1 36216722#1-AddedOffRampEdge 36216722#2 36062421#1 36062421#2-AddedOnRampEdge 36062421#2 684661315#1 684661315#2 684661315#2-AddedOffRampEdge 33570291 1147769701 -10239237 -684661299#1 -684661300#8 -684661300#7 -684661300#6 -684661300#5 -684661300#4 -684661300#3 -684661300#2 -684661300#1 -10246801#5 -10246801#4 -10246801#3 -10246801#2 -10246801#0 -10233419 -244437926#2 -244437926#1 -244437926#0"/>
        <stop busStop="9932608366" duration="30.00"/>
        <stop busStop="-11361052134" duration="30.00"/>
    </vehicle>

    <vehicle id="17_bus_850:1" type="pt_bus" depart="326.00" departLane="0" arrival="1948.00">
        <route edges="231250765 -231250751#2 -231250751#1 -231250751#0 -694192100#6 -694192100#5 -694192100#4 -694192100#3 -694192100#2 -694192100#1 -694192100#0 -346479769#4 -346479769#3 -346479769#1 10245147#1 10245147#2 10245147#3 886367180#0 346479766 1224012770-AddedOnRampEdge 1224012770 886103356 1224012775-AddedOnRampEdge 1224012775 886103360 52733931-AddedOnRampEdge 52733931 37075151 37075150#0 37075150#1-AddedOnRampEdge 37075150#1 37073834 37073835 37073828 37073829 37073826 37073826-AddedOffRampEdge 413241574 37073817 1341198826 1341198826-AddedOffRampEdge 1029860194 413241229-AddedOnRampEdge 413241229 1029860247 1029860247-AddedOffRampEdge 37071184 1029860257-AddedOnRampEdge 1029860257 1341211502 1341211502-AddedOffRampEdge 1029860206 1029860258 1029860262 1029860263 1029860268 1029860268-AddedOffRampEdge 10231109 28375244-AddedOnRampEdge 28375244 1341201398 1341201398-AddedOffRampEdge 1029860280 1029860287-AddedOnRampEdge 1029860287 1341210322 1341210322-AddedOffRampEdge 1029860303 1029860305 1029860305-AddedOffRampEdge 1029860306 124522765 27940509 1341201242 228562186 791113047 598018722 684661252 781564531#1 781564531#2 413172548 413172548-AddedOffRampEdge 791113055 791113054 593608392#1 1352502542 228562189#0 228562189#1 1192673079#1 1192673079#2 1192673079#3 1192673079#5 1192673079#6 1192673079#7 1326410762#1 1326410761#0 10231591#1 10231591#3 10231591#4 10231591#5 10231591#7 10231591#8 -1336632006#0 1336632007#0 1336632007#1 1336632007#5 1212070929#2 157871220#2 157871220#3 157871220#4 157871220#6 157871220#7 157871220#8 157871220#9 157871220#11 157871220#12 10241286 759012969 231243759#0 231243759#1 231243759#2 231364512#1 887685004#0 887685004#1 1224483160"/>
        <stop busStop="11360306139" duration="30.00"/>
        <stop busStop="9932513543" duration="30.00"/>
    </vehicle>

    <vehicle id="25_bus_822:1" type="pt_bus" depart="485.00" departLane="0" arrival="2519.00">
        <route edges="-244437926#0 -1225096172#2 -1225096172#1 -1225096172#0 -684661300#8 -684661300#7 -684661300#6 -684661300#5 -684661300#4 -684661300#3 -684661300#2 -684661300#1 -105736330#25 -105736330#24 -105736330#23 -105736330#21 -105736330#20 -105736330#17 -105736330#16 -105736330#15 -105736330#14 -105736330#13 -105736330#12 -105736330#11 -105736330#9 -105736330#8 -105736330#6 -105736330#5 -105736330#4 -105736330#3 -105736330#2 -105736330#1 682287084#1 682287084#2 682287085#0 682287085#1 682287085#2 682287085#3 682287085#4 97124322#0 97124322#1 97124322#2 97124322#3 97124322#4 97124322#5 97124322#6 97124322#7 97124322#8 97124322#11 97124322#12 97124322#14 97124322#15 97124322#16 97124322#17 97124322#18 97124322#19 97124322#20 933030959#0 933030959#1 10225762#1 933030958#0 933030958#1 -10212007#3 -10212007#2 -10212007#1 -10212007#0 -933030957#1 -933030956#0 -1358485924#3 -1358485924#2 -1358485924#1 -1358485924#0 -10246516#25 -10246516#24 -10246516#23 -10246516#22 -10246516#21 -10246516#20 -10246516#19 -10246516#17 -10246516#16 -10246516#15 -10246516#14 -10246516#13 -10246516#12 -10246516#11 -10246516#8 -10246516#7 -10246516#5 -10246516#4 -10246516#3 -10246516#2 -10246516#0 -933030955#1 -933030954#0 -933030953#20 -933030953#19 -933030953#18 -933030953#17 -933030953#16 -933030953#15 -933030953#14 -933030953#12 -933030953#11 -933030953#9 -933030953#8 -933030953#7 -933030953#6 -933030953#5 -933030953#4 -933030953#3 -933030953#2 -933030953#1 -933030953#0 -933030952#2 -933030952#1 933030951#1 10248787#0 10248787#2 10248787#3 933030949#0 933030949#1 933030949#2 933030950 32893453#0 32893453#2 32893453#3 32893453#4 933030948 933972048 933030947#0 933030947#1 933030947#2 1358485922#1 1358485922#2 933030946#0 933030946#1 933030945#0 933030945#1 933972047#1 933030944 1358485920#0 1358485920#1 1358485921#1 933030943 933030942 933030941#0 933030941#1 933030941#2 933030941#3 933030941#4 933030941#5 933030941#6 933030941#7 933030941#8 933030941#9 933030941#11 933972045 1358485918 1358485917 933030940 933026951 933026950#0 933026950#1 933026950#2 933026950#4 933026950#5 933972046#0 933972046#1 933972046#2 933026947#0 933026947#1 933026946 1358485916#0 1358485916#1 933026945#1 933026944#0 933026944#1 933026944#2 933026943#0 933026942#0 933026942#1 933026942#3 933026942#4 933026942#5 933026942#6 933026942#7 933026942#8 933972044#0 933972044#1 933972044#2 933972044#3 933972044#4 933972044#5 933972044#6 932416323#1 1358485915#1 1358485915#2 1358485915#3 1358485915#4 1358485915#5 1358485915#6 933026934#0 933026934#1 933026933#0 933026933#1 933026932 10248511#0 10248511#1 10248511#2 10248511#3 10248511#4 10248511#5 933026931 933026930#0 933026929 432599176 933026922#0 933026922#1 933026928 933026927 933026926 933026924#0 933026924#1 933026925#0 933026925#1 933026923#0 933026923#1 432599175#0 432599175#2 432599175#3 432599175#4 432599175#5 432599175#6 432599175#7 432599175#9 432599175#10 432599175#11 432599175#12 933026921#0 933017543#1 32893480#0 32893480#1 933017542#0 933017541 933017540#0 933017540#1 933017539#0 933017537#1 933017538 933017536#0 32893523#1 933017535#0 933017535#2 933017534#0 933017534#1 933017533#0 933017533#1 933017532 933017531#0 933017530#1 933017529#0 933017529#1 933017528#0 933017527#0 933017527#1 933017526#0 933017526#1 933017525 757801002#0 32893524#1 749759972 749759971 749759970 749759969#1 749759969#4 749759969#5 749759969#6 762855680#0 762855680#1 762855680#4 762855680#5 762855680#6 762855680#7 762855680#10 762855680#11 762855680#13 762855680#14 762855680#15 762855680#16 1363788485#1 1363788485#2 1363788485#3 1363788485#4 1363788485#5 1363788487 105821405#0 1376064203#1 10211667#0 10211667#1 10211667#2-AddedOnRampEdge 10211667#2 800176123 37063042#1-AddedOnRampEdge 37063042#1 119371559 1069685341 1182836398 1341198587 1182836397 1027606958-AddedOnRampEdge 1027606958 1027606964 1027606964-AddedOffRampEdge 1027606966 1027606968-AddedOnRampEdge 1027606968 1027606969 1341199769 684661287 684661291-AddedOnRampEdge 684661291 1027606972 28530917 1027606973 1344468924 37064998 1107059663 10195225 1018318843 1107089200 598020173#0 28223366 230344362#0 230344361#0 230377854#0 230377854#1 28376044 231247790 477393514 413237539 230346378#0 230346378#1 477393511"/>
        <stop busStop="-11361052134" duration="30.00"/>
        <stop busStop="8849397580" duration="30.00"/>
        <stop busStop="9932608367" duration="30.00"/>
    </vehicle>

    <vehicle id="1_bus_UVX:1" type="pt_bus" depart="15.00" departLane="0" arrival="2615.00">