<?xml version="1.0" encoding="UTF-8"?>

<!-- generated on 2025-02-22 16:40:11 by Eclipse SUMO sumo Version 1.22.0
<sumoConfiguration xmlns:xsi="http://www.w3.org/2001/XMLSchema-instance" xsi:noNamespaceSchemaLocation="http://sumo.dlr.de/xsd/sumoConfiguration.xsd">

    <input>
        <net-file value="\\wsl.localhost\Ubuntu\home\ramm\sumo\tools\2025-02-22-16-39-31\osm.net.xml.gz"/>
        <route-files value="\\wsl.localhost\Ubuntu\home\ramm\sumo\tools\2025-02-22-16-39-31\trips.trips.xml"/>
        <additional-files value="\\wsl.localhost\Ubuntu\home\ramm\sumo\tools\2025-02-22-16-39-31\osm_stops.add.xml"/>
    </input>

    <output>
        <vehroute-output value="\\wsl.localhost\Ubuntu\home\ramm\sumo\tools\2025-02-22-16-39-31\vehroutes.xml"/>
        <stop-output value="\\wsl.localhost\Ubuntu\home\ramm\sumo\tools\2025-02-22-16-39-31\stopinfos.xml"/>
    </output>

    <time>
        <begin value="0.0"/>
    </time>

    <processing>
        <ignore-route-errors value="true"/>
    </processing>

    <routing>
        <device.rerouting.adaptation-interval value="0"/>
    </routing>

    <report>
        <aggregate-warnings value="5"/>
        <error-log value="\\wsl.localhost\Ubuntu\home\ramm\sumo\tools\2025-02-22-16-39-31\trips.trips.xml.errorlog"/>
        <no-step-log value="true"/>
    </report>

</sumoConfiguration>
-->

<routes xmlns:xsi="http://www.w3.org/2001/XMLSchema-instance" xsi:noNamespaceSchemaLocation="http://sumo.dlr.de/xsd/routes_file.xsd">
    <vehicle id="3_bus_805:0" type="pt_bus" depart="17.00" departLane="0" arrival="157.00">
        <route edges="28223368 1107059663 10195225 1018318843 1107089200 598020173#0 28223366 230344362#0 230344361#0 230377854#0 230377854#1 28376044 231247790 477393514"/>
        <stop busStop="9932608366" duration="30.00"/>
    </vehicle>

    <vehicle id="4_bus_806:0" type="pt_bus" depart="52.00" departLane="0" arrival="385.00">
        <route edges="477393511 1030237289 346646681#0 346646681#1 1030561465#0 1030561465#1 28376056#0 28376056#1 230344367#0 230344367#1 413212996 413212995#0 413213007 102605769 413241227#0-AddedOnRampEdge 413241227#0 413241227#1-AddedOnRampEdge 413241227#1 1018318844 413241225 1341200990 1341200990-AddedOffRampEdge 1029860304 28223411 1344470178 1344470179-AddedOnRampEdge 1344470179 1344470179-AddedOffRampEdge 1029860288 1029860277-AddedOnRampEdge 1029860277 1029860277-AddedOffRampEdge 1029860281"/>
        <stop busStop="9932608367" duration="30.00"/>
    </vehicle>

    <vehicle id="2_bus_831:0" type="pt_bus" depart="21.00" departLane="0" arrival="402.00">
        <route edges="1225221152#1 463704558#0 463704558#1 -262148878#6 -544659086#5 -544659086#4 -544659086#1 351724691#8 351724691#9 351724691#10 1095496457 28223395 28223395-AddedOffRampEdge 607175019#1 28223391#0 866663396 866663395 1224012774 28223366 413212999 599840866#0 418454992 102605736#0 882705697 792414436 882705688#0 144350639#0 144350639#1 144350639#2 144350639#3 144350639#5 144350639#6 144350639#8 -229097623#12 -229097623#11 -229097623#8 -229097623#7 -229097623#6 -229097623#5 -229097623#4 -229097623#2 -229097623#1"/>
        <stop busStop="9932488271" duration="30.00"/>
    </vehicle>

    <vehicle id="1_bus_UVX:1" type="pt_bus" depart="15.00" departLane="0" arrival="510.00">
        <route edges="1225221152#1 463704558#0 463704558#1 -262148878#6 -544659086#5 -544659086#4 -544659086#1 351724691#8 351724691#9 351724691#10 1095496457 28223395 28223395-AddedOffRampEdge 607175019#1 28223391#0 866663396 866663395 1224012774 28223366 413212999 599840866#0 418454992 102605736#0 882705697 792414436 882705688#0 144350639#0 144350639#1 144350639#2 144350639#3 144350639#5 144350639#6 144350639#8 144350634#0 144350634#1 1036894577 1036894581#0 1036894579#3 1036894579#4 1036897385#1 1001839206#2 1001839206#3 1001839206#4 1001839206#5 1001839206#7 1001839206#8"/>
        <stop busStop="9932488270" duration="30.00"/>
    </vehicle>

    <vehicle id="13_train_750:0" type="pt_train" depart="353.00" departLane="0" arrival="520.00">
        <route edges="100198877"/>
        <stop busStop="3020209235" duration="30.00"/>
    </vehicle>

    <vehicle id="17_bus_805:1" type="pt_bus" depart="441.00" departLane="0" arrival="583.00">
        <route edges="477393511 1030237289 346646681#0 346646681#1 1030561465#0 1030561465#1 28376056#0 28376056#1 230344367#0 230344367#1 413212996 413212995#0 413213007 866663381#0 866663398 866663393 866663397 40664634#1-AddedOnRampEdge 40664634#1 1018318842 27940509"/>
        <stop busStop="9932608367" duration="30.00"/>
    </vehicle>

    <vehicle id="5_bus_807:0" type="pt_bus" depart="119.00" departLane="0" arrival="612.00">
        <route edges="477393514 413237539 230346378#0 230346378#1 477393511 1030237289 346646681#0 346646681#1 1030561465#0 1030561465#1 28376056#0 28376056#1 230344367#0 230344367#1 413212996 413212995#0 413213007 102605769 413241227#0-AddedOnRampEdge 413241227#0 413241227#1-AddedOnRampEdge 413241227#1 1018318844 413241225 1341200990 1341200990-AddedOffRampEdge 1029860304 28223411 1344470178 1344470179-AddedOnRampEdge 1344470179 1344470179-AddedOffRampEdge 1029860288 1029860277-AddedOnRampEdge 1029860277 1029860277-AddedOffRampEdge 10205650 652412672#0 1224976453#0 1224976453#1 634107013#0 978359031#0 978359031#1 978359031#2 634107012 -10241949#2 -10241949#1 -10241949#0"/>
        <stop busStop="9932608366" duration="30.00"/>
    </vehicle>

    <vehicle id="0_bus_UVX:0" type="pt_bus" depart="3.00" departLane="0" arrival="626.00">
        <route edges="884914055#0 884914055#1 884914055#3 884914055#4 884914055#6 884914055#7 884914055#8 1036897390#1 1036897390#3 1036897390#4 1036897390#5 1036894576 1001839221 1001839223#1 1001839223#2 1001839223#3 1001839223#4 1001839223#5 1001839223#6 882705686#1 599840849#1 599840849#1-AddedOffRampEdge 599840849#2 882705696#0 882705696#1 144350637 230377848#0 230344368 413213007 131702935#0 40664629 866663391 866663389 177427971#0 177427971#1-AddedOnRampEdge 177427971#1 -1095496457 -351724691#10 -351724691#9 -351724691#8 544659086#1 544659086#4 544659086#5 262148878#6 -463704558#1 -463704558#0 346643179#0 346643179#1 346643179#2 346643179#3 463704557#1 1225221152#1"/>
        <stop busStop="9932608386" duration="30.00"/>
    </vehicle>

    <vehicle id="8_bus_862:0" type="pt_bus" depart="133.00" departLane="0" arrival="693.00">
        <route edges="776681829#5 10244330#0 10244330#1 10244330#2 1103204099#0 1036897390#1 1036897390#3 1036897390#4 1036897390#5 1036894576 1001839221 1001839223#1 1001839223#2 1001839223#3 1001839223#4 1001839223#5 1001839223#6 882705686#1 599840849#1 599840849#1-AddedOffRampEdge 599840849#2 882705696#0 882705696#1 144350637 230377848#0 230344368 413213007 131702935#0 40664629 866663391 866663389 177427971#0 177427971#1-AddedOnRampEdge 177427971#1 -1095496457 -351724691#10 -351724691#9 -351724691#8 544659086#1 544659086#4 544659086#5 262148878#6 -463704558#1 -463704558#0 346643179#0 346643179#1 346643179#2 346643179#3 463704557#1"/>
        <stop busStop="6863882459" duration="30.00"/>
    </vehicle>

    <vehicle id="14_bus_806:1" type="pt_bus" depart="383.00" departLane="0" arrival="740.00">
        <route edges="10231109 28375244-AddedOnRampEdge 28375244 1341201398 1341201398-AddedOffRampEdge 1029860280 1029860287-AddedOnRampEdge 1029860287 1341210322 1341210322-AddedOffRampEdge 1029860303 1029860305 1029860305-AddedOffRampEdge 598020172 866670353 866670353-AddedOffRampEdge 866663382#0 866663382#2 866663388 866663386 866663399 1224012774 28223366 230344362#0 230344361#0 230377854#0 230377854#1 28376044 231247790 477393514"/>
        <stop busStop="9932608366" duration="30.00"/>
    </vehicle>

    <vehicle id="6_bus_822:0" type="pt_bus" depart="131.00" departLane="0" arrival="758.00">
        <route edges="477393514 413237539 -39255600#8 -39255600#7 -39255600#6 -39255600#5 -39255600#4 -39255600#3 -39255600#1 -39255600#0 28337320#0 28337320#1 684661224#0 684661224#1 39255611#0 39255611#1 39255615#0 39255615#1 882705687#0 882705687#1 882705687#2 882705687#3 882705687#4 882705687#6 882705687#7 1001619396#1 1036894579#0 1036894579#2 1036894579#3 1036894579#4 1036897385#1 1001839206#2 1001839206#3 1001839206#4 1001839206#5 1001839216#1"/>
        <stop busStop="9932608366" duration="30.00"/>
    </vehicle>

    <vehicle id="16_train_750:1" type="pt_train" depart="406.00" departLane="0" arrival="774.00">
        <route edges="762329402#0 762329402#1 762329400#0 762329400#1 762329400#2 762329400#3 -298119548#1 -298119548#0"/>
        <stop busStop="3020209244" duration="30.00"/>
    </vehicle>

    <vehicle id="12_bus_807:1" type="pt_bus" depart="326.00" departLane="0" arrival="880.00">
        <route edges="10241949#0 10241949#1 10241949#2 36872256#0 36872256#1 36872256#2 36872256#3 36872256#4 36872256#5 36872256#6 36872256#7 36872256#8 36872256#9 36872256#10 36872256#11 231364923#1 231364923#2 231364923#3 231364923#4 231364923#5 231364923#6 1030549857#0 1030549857#1 1030549856#1 1030549856#2 1030549856#3 1030549856#4 1030549856#5 1030549856#6 1030549856#7 1030549856#8 1030549856#9 1030549856#11 1030549856#12 1210607054#1 1210607054#2 -1210607053#3 -1210607053#2 -1210607053#1 -1210607053#0 -228550732#0 -346643729#0 -1210607051#2 -1210607051#1 -1210607051#0 -231364515#7 -231364515#6 -231364515#5 -231364515#4 -231364515#3 -231364515#2 -231364515#1 -231364515#0 -1210607050#2 -1210607050#1 -1210607049#0 -1210607048#1 -1210607048#0 -1210607047#3 -1210607047#2 -1210607046#2 -1210607046#0 -413212997#6 -413212997#5 -413212997#4 -413212997#3 -413212997#1 -413212997#0 -1095499050#3 -1095499050#2 -28223397#2 -28223397#0 1095496457 28223395 28223395-AddedOffRampEdge 607175019#1 28223391#0 866663396 866663395 1224012774 28223366 230344362#0 230344361#0 230377854#0 230377854#1 28376044 231247790 477393514 413237539 230346378#0 230346378#1 477393511"/>
        <stop busStop="9932608367" duration="30.00"/>
    </vehicle>

    <vehicle id="15_bus_831:1" type="pt_bus" depart="389.00" departLane="0" arrival="903.00">
        <route edges="229097623#1 229097623#2 229097623#4 229097623#5 229097623#6 229097623#7 229097623#8 229097623#10 229097623#12 1001839223#2 1001839223#3 1001839223#4 1001839223#5 1001839223#6 882705686#1 599840849#1 599840849#1-AddedOffRampEdge 599840849#2 882705696#0 230344372#0 882705689 28376044 231247790 477393514 413237539 230346378#0 230346378#1 477393511 1030237289 346646681#0 346646681#1 1030561465#0 1030561465#1 28376056#0 28376056#1 230344367#0 230344367#1 413212996 413212995#0 413213007 131702935#0 40664629 866663391 866663389 177427971#0 177427971#1-AddedOnRampEdge 177427971#1 -1095496457 -351724691#10 -351724691#9 -351724691#8 544659086#1 544659086#4 544659086#5 262148878#6 -463704558#1 -463704558#0 346643179#0 346643179#1 346643179#2 346643179#3 463704557#1 1225221152#1"/>
        <stop busStop="9932608366" duration="30.00"/>
    </vehicle>

    <vehicle id="9_bus_880:0" type="pt_bus" depart="165.00" departLane="0" arrival="926.00">
        <route edges="776681829#5 10244330#0 10244330#1 10244330#2 1103204099#0 1036897385#1 1001839206#2 1001839206#3 1001839206#4 1001839206#5 1274723860#1 1274723860#2 1274723860#3 -231247786#2 -231247786#1 -231247786#0 -231243108#11 -231243108#10 -231243108#9 -231243108#8 -231243108#7 -231243108#6 -231243108#4 -231243108#3 -231243108#2 -231243108#1 -599894822#0 -599894823#1 -599894823#0 909694983 599894824 909694984 -599894825#1 -599894825#0 -599894826#1 231243104#1 106483912#0 106483912#1 106483912#3 686156598 686156529 10246819#1 10246819#2 -61115593#9 -61115593#8 -61115593#7 -61115593#6 -61115593#5 -61115593#3 -61115593#2 -61115593#1 -61115593#0 686156221#1 61115613#3 647218781#0 -762212665 -686155473 -106483902#1 -106483902#0 -686155475#1 -686155475#0 -750002066#1 -750002066#0 -10232859#1 10234551#1 10234551#2 10234551#3 157871188#0 157871188#1 157871188#2 157871188#3 157871188#4 106483908#1 106483908#2 686154729#1 686154730#0 686154730#1 686154730#2 686154730#3 686154730#4 686154730#5 686154730#6 686154730#7 686154730#8 686154730#10 686154730#11 686154730#12 686154730#13 686154730#14 686154730#16 686154730#17 686154731#0 791097220#1 791097219#0 791097219#1 791097219#2 791097219#3 791097219#4 791097219#6 791097219#7 791097219#8 791097219#9 10243916#0 10243916#1 10243916#2 10243916#3 10243916#4 10243916#5 10243916#6 10243916#7 10243916#8 10243916#9 10243916#10 10243916#11 10229549#0 10229549#1 36973378 790916872#0 790916872#1 790916873 790916876 365491737 684661297 36973354#0 36973354#1 36973354#2 36973354#3 36973354#4 36973354#5 36973354#6 36973354#7"/>
        <stop busStop="6863882459" duration="30.00"/>
    </vehicle>

    <vehicle id="10_bus_880:1" type="pt_bus" depart="253.00" departLane="1" arrival="949.00">
        <route edges="175387010#0 175387010#1 175387010#2 175387010#3 175387010#4 175387010#5 175387010#6 175387010#7-AddedOnRampEdge 175387010#7 117922014 -790916875 -790916873 -790916874 -790916872#0 -790916870 -790916871 10231860 -10229549#1 -10229549#0 -10243916#11 -10243916#10 -10243916#9 -10243916#8 -10243916#7 -10243916#6 -10243916#5 -10243916#4 -10243916#3 -10243916#2 -10243916#1 -10243916#0 -791097219#9 -791097219#8 -791097219#7 -791097219#6 -791097219#4 -791097219#3 -791097219#2 -791097219#1 -791097219#0 -791097220#1 -686154731#0 -686154730#17 -686154730#16 -686154730#14 -686154730#13 -686154730#12 -686154730#11 -686154730#10 -686154730#8 -686154730#7 -686154730#6 -686154730#5 -686154730#4 -686154730#3 -686154730#2 -686154730#1 -686154730#0 -686154729#1 -106483908#2 -106483908#1 -106483908#0 -157871188#3 -157871188#2 -157871188#1 -157871188#0 -10234551#3 -10234551#2 -10234551#1 10232859#1 750002066#0 750002066#1 686155475#0 686155475#1 106483902#0 106483902#1 686155473 762212665 686155474#1 61115613#5 61115613#6 61115613#1 647218787#0 61115593#0 61115593#1 61115593#2 61115593#3 61115593#5 61115593#6 61115593#7 61115593#8 61115593#9 -100198894 -10246819#1 -10246819#0 -686156598 -106483903 -106483912#1 -106483912#0 -231243104#1 599894826#1 599894825#0 599894825#1 909694985#0 909694985#1 909694985#2 599894823#0 599894823#1 599894822#0 231243108#1 231243108#2 231243108#3 231243108#4 231243108#6 231243108#7 231243108#8 231243108#9 231243108#10 231243108#11 231247786#0 231247786#1 231247786#2 1274723858#0 1274723858#1 1274723858#2 1274723858#3 776681829#1 776681829#3 776681829#4 776681829#5"/>
        <stop busStop="6863882459" duration="30.00"/>
    </vehicle>

    <vehicle id="11_bus_862:1" type="pt_bus" depart="303.00" departLane="0" arrival="970.00">
        <route edges="463704557#1 1225221152#1 463704558#0 463704558#1 -262148878#6 -544659086#5 -544659086#4 -544659086#1 351724691#8 351724691#9 351724691#10 1095496457 28223395 28223395-AddedOffRampEdge 607175019#1 28223391#0 866663396 866663395 1224012774 28223366 413212999 599840866#0 418454992 102605736#0 882705697 792414436 882705688#0 144350639#0 144350639#1 144350639#2 144350639#3 144350639#5 144350639#6 144350639#8 144350634#0 144350634#1 1036894577 1036894581#0 1036894579#3 1036894579#4 1036897385#1 1001839206#2 1001839206#3 1001839206#4 1001839206#5 776681829#1 776681829#3 776681829#4 776681829#5"/>
        <stop busStop="9932488272" duration="30.00"/>
    </vehicle>

    <vehicle id="19_bus_822:1" type="pt_bus" depart="535.00" departLane="2" arrival="998.00">
        <route edges="1001839212 1001839211#0 884914055#3 884914055#4 884914055#6 884914055#7 884914055#8 1036897390#1 1036897390#3 1036897390#4 1036897390#5 1036894576 1001839221 1001839223#1 1001839223#2 1001839223#3 1001839223#4 144350638#4 144350638#5 144350638#6 144350638#7 -39255615#1 -39255615#0 28337308#1 28337308#2 144350648#0 144350648#1 144350648#2 144350648#3 144350648#4 144350648#5 1027556527 39255599#0 39255599#1 39255599#2 39255600#0 39255600#1 39255600#3 39255600#4 39255600#5 39255600#6 39255600#7 39255600#8 230346378#0 230346378#1 477393511"/>
        <stop busStop="9932608367" duration="30.00"/>
    </vehicle>

    <vehicle id="7_bus_834:0" type="pt_bus" depart="132.00" departLane="0" arrival="1184.00">
        <route edges="1095494532#2 1225109954#1 -1225110665 -1225110664 1225109956#0 -745744432#1 -745744432#0 -745744433 -1224687162#1 -1224687162#0 -531481010 -82253108#1 -1030754718#0 -1030754720 -131702940 -1030755158 -1030754719 -1030754717 46038409 46038409-AddedOffRampEdge 634121129 1030754712 1030754697 1030754696 1030754715#0 1030754715#1 781564529#0 -231764120#1 -231764120#0 -684673672#1 -684673672#0 -1213306802#1 -1213306802#0 -131702939#8 -131702939#7 -131702939#6 -131702939#4 -131702939#3 -131702939#2 -131702939#1 -131702939#0 32741491#1 32741491#2 -10248582#6 -10248582#5 -10248582#4 -10248582#3 -10248582#2 -10248582#1 -10248582#0 -10240608#1 -10240608#0 -1212643311#7 -1212643311#6 -1212643311#5 -1212643311#4 -1212643311#3 -1212643311#1 -1212643311#0 -1212643312#7 -1212643312#6 -1212643312#5 -1212643312#2 -1212643312#1 -1212643312#0 -10248584#11 -10248584#10 -10248584#9 -10248584#8 -10248584#7 -10248584#6 -10248584#5 -10248584#4 -10248584#3 -10248584#2 -10248584#1 -10248584#0 -1212643313#2 -1212643313#1 64880643#1 1210604241 1210604239#0 1210604239#1 1210604240#1 64880642#0 64880642#1 64880642#2 64880642#3 64880642#4 64880642#5 64880642#6 64880642#7 64880642#8 64880642#9 64880642#10 64880642#11 1103213885#4 1103213885#5 1103213885#6 1103213885#7 1103213885#8 1103213885#9 1103213883#0 1103213883#1 1103213884#1 1103213884#2 10249104#0 10249104#1 10249104#2 10249104#3 10249104#4 10249104#5 10249104#6 10249104#7 10249104#8 10249104#9 10249104#11 10249104#14 10249104#15 10249104#16 10249104#19 10249104#20 10249104#21 10249104#24 10249104#25 10249104#28 10249104#29 10249104#30 779045148#1 779045146 94456274#0 94456274#1 94456274#2 94456274#3 94456274#4 94456274#5 94456274#6 94456274#7 94456274#8 94456274#9 94456274#10 94456274#11 94456274#12 94456274#13 686156529 10246819#1 10246819#2 -61115593#9 -61115593#8 -61115593#7 -61115593#6 -61115593#5 -61115593#3 -61115593#2 -61115593#1 -61115593#0 686156221#1 61115613#3 647218781#0 -762212665 -686155473 -106483902#1 -106483902#0 -686155475#1 -686155475#0 -750002066#1 -750002066#0 -10232859#1 -790916853#0 790916852#0 790916852#1 -790916851#1 -790916850#0 790916849#0 790916849#1 790916849#2 790916849#3 790916848#0 790916848#1 790916847#0 790916847#1 1191318977#0 1191318977#1 -790916846#1 -790916845"/>
        <stop busStop="11361153248" duration="30.00"/>
    </vehicle>

    <vehicle id="18_bus_834:1" type="pt_bus" depart="485.00" departLane="1" arrival="1513.00">
        <route edges="790916845 790916846#1 -1191318977#1 -1191318977#0 -790916847#1 -790916847#0 -790916848#1 -790916848#0 -790916849#3 -790916849#2 -790916849#1 -790916849#0 790916850#0 790916851#1 -790916852#1 -790916852#0 790916853#0 10232859#1 750002066#0 750002066#1 686155475#0 686155475#1 106483902#0 106483902#1 686155473 762212665 686155474#1 61115613#5 61115613#6 61115613#1 647218787#0 61115593#0 61115593#1 61115593#2 61115593#3 61115593#5 61115593#6 61115593#7 61115593#8 61115593#9 -100198894 -10246819#1 -10246819#0 -94456274#13 -94456274#12 -94456274#11 -94456274#10 -94456274#9 -94456274#8 -94456274#7 -94456274#6 -94456274#5 -94456274#4 -94456274#3 -94456274#2 -94456274#1 -94456274#0 -779045146 -779045148#1 -10249104#30 -10249104#29 -10249104#28 -10249104#25 -10249104#24 -10249104#21 -10249104#20 -10249104#19 -10249104#16 -10249104#15 -10249104#14 -10249104#11 -10249104#9 -10249104#8 -10249104#7 -10249104#6 -10249104#5 -10249104#4 -10249104#3 -10249104#2 -10249104#1 -10249104#0 -1103213884#2 -1103213884#1 -1103213883#1 -1103213883#0 -1103213885#9 -1103213885#8 -1103213885#7 -1103213885#6 -1103213885#5 -1103213885#4 -1210604238#0 -64880642#10 -64880642#9 -64880642#8 -64880642#7 -64880642#6 -64880642#5 -64880642#4 -64880642#3 -64880642#2 -64880642#1 -64880642#0 -1210604240#1 -1210604240#0 -1210604239#0 -1210604241 64880644#0 64880644#1 1212643313#1 1212643313#2 10248584#0 10248584#1 10248584#2 10248584#3 10248584#4 10248584#5 10248584#6 10248584#7 10248584#8 10248584#9 10248584#10 10248584#11 1212643312#0 1212643312#1 1212643312#2 1212643312#5 1212643312#6 1212643312#7 1212643311#0 1212643311#1 1212643311#3 1212643311#4 1212643311#5 1212643311#6 1212643311#7 10240608#0 10240608#1 10231180#10 10231180#12 10231180#13 10231180#16 10231180#17 10231180#18 10231180#19 10231180#20 10231180#22 10226770#11 10226770#13 10226770#14 464810847 131702939#6 131702939#7 131702939#8 1213306802#0 1213306802#1 684673672#0 684673672#1 231764120#0 231764120#1 634121131#1 634121131#1-AddedOffRampEdge 1030754716 781564528 1030754699 1030754706 1030754711#0 1030754711#1 1030754711#2 1030754717 1030754719 1030755158 131702940 1030754720 1030754718#0 82253108#1 531481010 1224687162#0 1224687162#1 745744433 745744432#0 745744432#1 1095494530#1 1225110664 1095494532#0 1095494532#1 1095494532#2"/>
        <stop busStop="11361153248@9499501" duration="30.00"/>
    </vehicle>

</routes>
